36
 Atoms. Timestep: 2000
1 3.26934 -2.89303 0
1 -2.13233 -3.00958 0
2 -0.622424 2.10525 0
2 -0.17107 3.28096 0
2 0.987434 -3.10583 0
2 2.09479 -2.70797 0
2 -2.87764 -1.87701 0
2 -1.86959 -1.70867 0
2 -1.20445 2.93838 0
2 0.0178364 -2.41762 0
2 1.58407 -1.63899 0
2 2.74464 -1.87045 0
2 3.06509 -0.82055 0
2 -2.5527 -0.825006 0
2 -1.06741 -2.7129 0
2 -0.693262 -1.7199 0
2 0.370639 -1.47556 0
2 0.76377 -0.387775 0
2 -2.989 0.295199 0
2 -1.94579 0.358863 0
2 -1.37987 -0.69561 0
2 -0.267552 -0.621668 0
2 1.58561 0.43384 0
2 2.65044 0.425257 0
2 3.13513 1.6158 0
2 -2.49036 1.34315 0
2 -0.877766 0.246717 0
2 -0.0896791 0.975007 0
2 1.02121 1.36906 0
2 2.07207 1.49831 0
2 -3.31814 2.74383 0
2 -1.86098 2.16564 0
2 -1.20463 1.2436 0
2 0.448216 2.21378 0
2 1.42277 2.722 0
2 2.38158 2.51348 0
36
 Atoms. Timestep: 2001
1 3.27086 -2.89331 0
1 -2.13207 -3.01136 0
2 -0.620087 2.10729 0
2 -0.170104 3.28093 0
2 0.986722 -3.10471 0
2 2.09256 -2.70852 0
2 -2.87757 -1.87774 0
2 -1.86849 -1.712 0
2 -1.20582 2.93816 0
2 0.0185318 -2.4176 0
2 1.58409 -1.63565 0
2 2.74666 -1.87234 0
2 3.06573 -0.817871 0
2 -2.5561 -0.825863 0
2 -1.06765 -2.71391 0
2 -0.69271 -1.71743 0
2 0.370722 -1.47496 0
2 0.762094 -0.387579 0
2 -2.99062 0.294553 0
2 -1.94843 0.35746 0
2 -1.3788 -0.698517 0
2 -0.268982 -0.62093 0
2 1.58524 0.432866 0
2 2.65121 0.424071 0
2 3.13266 1.61639 0
2 -2.49152 1.34255 0
2 -0.87733 0.24533 0
2 -0.0879621 0.976751 0
2 1.02203 1.36899 0
2 2.07023 1.50011 0
2 -3.31577 2.74703 0
2 -1.86262 2.16526 0
2 -1.20475 1.24048 0
2 0.447892 2.21709 0
2 1.42501 2.72223 0
2 2.38513 2.51274 0
36
 Atoms. Timestep: 2002
1 3.27239 -2.89356 0
1 -2.13183 -3.01313 0
2 -0.617707 2.10931 0
2 -0.169132 3.28084 0
2 0.985944 -3.10347 0
2 2.09032 -2.70909 0
2 -2.87755 -1.87849 0
2 -1.86731 -1.71533 0
2 -1.2072 2.93802 0
2 0.019285 -2.41767 0
2 1.5841 -1.63232 0
2 2.74867 -1.87422 0
2 3.06637 -0.815178 0
2 -2.55947 -0.826697 0
2 -1.06789 -2.71492 0
2 -0.69224 -1.71486 0
2 0.370868 -1.47431 0
2 0.760447 -0.387378 0
2 -2.99225 0.293897 0
2 -1.95104 0.356052 0
2 -1.37776 -0.701443 0
2 -0.270438 -0.620208 0
2 1.58485 0.431887 0
2 2.65199 0.422896 0
2 3.1302 1.61698 0
2 -2.49269 1.3419 0
2 -0.876884 0.243936 0
2 -0.0862295 0.978519 0
2 1.02284 1.36889 0
2 2.06839 1.50187 0
2 -3.31335 2.75023 0
2 -1.86428 2.16488 0
2 -1.20491 1.23736 0
2 0.447541 2.22046 0
2 1.42719 2.72237 0
2 2.38877 2.51199 0
36
 Atoms. Timestep: 2003
1 3.27393 -2.89379 0
1 -2.13161 -3.0149 0
2 -0.61529 2.11129 0
2 -0.168155 3.28068 0
2 0.985101 -3.10211 0
2 2.08806 -2.70969 0
2 -2.87759 -1.87926 0
2 -1.86607 -1.71867 0
2 -1.20859 2.93798 0
2 0.0200931 -2.41783 0
2 1.58412 -1.629 0
2 2.75068 -1.87609 0
2 3.06701 -0.812472 0
2 -2.56283 -0.82751 0
2 -1.06812 -2.71592 0
2 -0.691851 -1.71219 0
2 0.371075 -1.47358 0
2 0.75883 -0.38717 0
2 -2.99392 0.293231 0
2 -1.95363 0.354637 0
2 -1.37673 -0.704389 0
2 -0.271917 -0.619504 0
2 1.58444 0.430903 0
2 2.65277 0.421732 0
2 3.12777 1.61757 0
2 -2.49389 1.34121 0
2 -0.87643 0.242537 0
2 -0.0844826 0.98031 0
2 1.02365 1.36874 0
2 2.06655 1.50361 0
2 -3.31087 2.75341 0
2 -1.86595 2.16447 0
2 -1.20511 1.23424 0
2 0.447167 2.22387 0
2 1.4293 2.72242 0
2 2.3925 2.51123 0
36
 Atoms. Timestep: 2004
1 3.27547 -2.89399 0
1 -2.13141 -3.01666 0
2 -0.612839 2.11324 0
2 -0.167173 3.28046 0
2 0.984198 -3.10065 0
2 2.08578 -2.71031 0
2 -2.87767 -1.88005 0
2 -1.86476 -1.72201 0
2 -1.20999 2.93802 0
2 0.0209532 -2.41809 0
2 1.58413 -1.62568 0
2 2.75268 -1.87794 0
2 3.06763 -0.809755 0
2 -2.56615 -0.828302 0
2 -1.06836 -2.71691 0
2 -0.691542 -1.70943 0
2 0.371344 -1.4728 0
2 0.757242 -0.386957 0
2 -2.9956 0.292555 0
2 -1.95618 0.353216 0
2 -1.37573 -0.707354 0
2 -0.273419 -0.61882 0
2 1.58401 0.429915 0
2 2.65355 0.42058 0
2 3.12535 1.61817 0
2 -2.49511 1.34048 0
2 -0.875969 0.241134 0
2 -0.0827228 0.982125 0
2 1.02444 1.36856 0
2 2.06471 1.50531 0
2 -3.30834 2.75657 0
2 -1.86762 2.16405 0
2 -1.20535 1.23114 0
2 0.446773 2.22733 0
2 1.43136 2.72239 0
2 2.39631 2.51046 0
36
 Atoms. Timestep: 2005
1 3.27702 -2.89416 0
1 -2.13123 -3.01842 0
2 -0.610359 2.11515 0
2 -0.166187 3.28018 0
2 0.983234 -3.09908 0
2 2.08349 -2.71095 0
2 -2.87781 -1.88086 0
2 -1.86337 -1.72535 0
2 -1.2114 2.93815 0
2 0.0218622 -2.41844 0
2 1.58414 -1.62237 0
2 2.75467 -1.87978 0
2 3.06824 -0.807026 0
2 -2.56945 -0.829073 0
2 -1.0686 -2.71788 0
2 -0.691308 -1.70658 0
2 0.371674 -1.47194 0
2 0.755685 -0.386738 0
2 -2.9973 0.291868 0
2 -1.9587 0.351789 0
2 -1.37475 -0.710337 0
2 -0.274939 -0.618158 0
2 1.58357 0.428921 0
2 2.65433 0.41944 0
2 3.12295 1.61876 0
2 -2.49636 1.33971 0
2 -0.875503 0.239728 0
2 -0.0809513 0.983961 0
2 1.02522 1.36835 0
2 2.06287 1.50698 0
2 -3.30576 2.75971 0
2 -1.86931 2.16361 0
2 -1.20562 1.22805 0
2 0.446364 2.23084 0
2 1.43335 2.72228 0
2 2.4002 2.50968 0
36
 Atoms. Timestep: 2006
1 3.27858 -2.8943 0
1 -2.13107 -3.02018 0
2 -0.607853 2.11703 0
2 -0.165199 3.27983 0
2 0.982214 -3.09742 0
2 2.08118 -2.71161 0
2 -2.87798 -1.88169 0
2 -1.86193 -1.72869 0
2 -1.21282 2.93836 0
2 0.022817 -2.41887 0
2 1.58415 -1.61906 0
2 2.75666 -1.88161 0
2 3.06884 -0.804288 0
2 -2.57271 -0.829823 0
2 -1.06883 -2.71884 0
2 -0.691149 -1.70365 0
2 0.372064 -1.47102 0
2 0.754158 -0.386513 0
2 -2.99901 0.29117 0
2 -1.96118 0.350355 0
2 -1.37379 -0.713338 0
2 -0.276477 -0.61752 0
2 1.58311 0.427923 0
2 2.65512 0.418311 0
2 3.12057 1.61935 0
2 -2.49762 1.33889 0
2 -0.875033 0.23832 0
2 -0.0791694 0.985818 0
2 1.02598 1.36811 0
2 2.06103 1.50862 0
2 -3.30312 2.76283 0
2 -1.87101 2.16315 0
2 -1.20592 1.22499 0
2 0.445944 2.23439 0
2 1.43529 2.7221 0
2 2.40417 2.50889 0
36
 Atoms. Timestep: 2007
1 3.28014 -2.89441 0
1 -2.13093 -3.02193 0
2 -0.605327 2.11886 0
2 -0.164209 3.27942 0
2 0.981139 -3.09566 0
2 2.07886 -2.7123 0
2 -2.8782 -1.88254 0
2 -1.86041 -1.73204 0
2 -1.21424 2.93866 0
2 0.0238145 -2.41937 0
2 1.58416 -1.61577 0
2 2.75863 -1.88342 0
2 3.06942 -0.801539 0
2 -2.57594 -0.830555 0
2 -1.06906 -2.71977 0
2 -0.691062 -1.70064 0
2 0.372514 -1.47004 0
2 0.752661 -0.386281 0
2 -3.00075 0.29046 0
2 -1.96362 0.348915 0
2 -1.37285 -0.716355 0
2 -0.278029 -0.616908 0
2 1.58263 0.426921 0
2 2.6559 0.417193 0
2 3.11821 1.61994 0
2 -2.49892 1.33803 0
2 -0.87456 0.236911 0
2 -0.0773783 0.987694 0
2 1.02671 1.36784 0
2 2.0592 1.51023 0
2 -3.30042 2.76594 0
2 -1.87272 2.16268 0
2 -1.20626 1.22195 0
2 0.445517 2.23797 0
2 1.43717 2.72184 0
2 2.40821 2.50809 0
36
 Atoms. Timestep: 2008
1 3.2817 -2.89448 0
1 -2.13081 -3.02368 0
2 -0.602783 2.12065 0
2 -0.163218 3.27894 0
2 0.980012 -3.09382 0
2 2.07652 -2.713 0
2 -2.87846 -1.88341 0
2 -1.85884 -1.73539 0
2 -1.21567 2.93903 0
2 0.0248517 -2.41995 0
2 1.58417 -1.61248 0
2 2.7606 -1.88522 0
2 3.06999 -0.798782 0
2 -2.57913 -0.831266 0
2 -1.06928 -2.72069 0
2 -0.691042 -1.69756 0
2 0.373021 -1.469 0
2 0.751194 -0.386043 0
2 -3.0025 0.28974 0
2 -1.96603 0.347467 0
2 -1.37194 -0.719389 0
2 -0.279594 -0.616325 0
2 1.58214 0.425915 0
2 2.65667 0.416088 0
2 3.11588 1.62053 0
2 -2.50023 1.33713 0
2 -0.874087 0.235504 0
2 -0.0755791 0.98959 0
2 1.02741 1.36755 0
2 2.05737 1.51181 0
2 -3.29767 2.76901 0
2 -1.87443 2.16219 0
2 -1.20663 1.21894 0
2 0.445087 2.2416 0
2 1.439 2.72152 0
2 2.41232 2.50729 0
36
 Atoms. Timestep: 2009
1 3.28327 -2.89452 0
1 -2.13071 -3.02542 0
2 -0.600226 2.1224 0
2 -0.162226 3.2784 0
2 0.978836 -3.09189 0
2 2.07418 -2.71373 0
2 -2.87875 -1.8843 0
2 -1.85721 -1.73875 0
2 -1.21711 2.93948 0
2 0.0259254 -2.4206 0
2 1.58418 -1.6092 0
2 2.76254 -1.887 0
2 3.07053 -0.796016 0
2 -2.58227 -0.831959 0
2 -1.0695 -2.72158 0
2 -0.691088 -1.69441 0
2 0.373585 -1.4679 0
2 0.749758 -0.385799 0
2 -3.00427 0.289007 0
2 -1.96839 0.346012 0
2 -1.37105 -0.722438 0
2 -0.281168 -0.615772 0
2 1.58163 0.424904 0
2 2.65744 0.414995 0
2 3.11357 1.62111 0
2 -2.50157 1.33619 0
2 -0.873614 0.234098 0
2 -0.073773 0.991504 0
2 1.02808 1.36723 0
2 2.05555 1.51336 0
2 -3.29486 2.77206 0
2 -1.87616 2.16169 0
2 -1.20704 1.21597 0
2 0.444658 2.24525 0
2 1.44078 2.72114 0
2 2.41648 2.50648 0
36
 Atoms. Timestep: 2010
1 3.28484 -2.89453 0
1 -2.13063 -3.02717 0
2 -0.59766 2.12411 0
2 -0.161236 3.27779 0
2 0.977613 -3.08989 0
2 2.07182 -2.71447 0
2 -2.87907 -1.88521 0
2 -1.85551 -1.7421 0
2 -1.21855 2.94 0
2 0.0270326 -2.42131 0
2 1.58419 -1.60592 0
2 2.76448 -1.88876 0
2 3.07105 -0.793241 0
2 -2.58538 -0.832634 0
2 -1.06971 -2.72244 0
2 -0.691197 -1.69119 0
2 0.374205 -1.46674 0
2 0.748353 -0.385547 0
2 -3.00606 0.288263 0
2 -1.97071 0.34455 0
2 -1.37018 -0.725502 0
2 -0.282749 -0.615253 0
2 1.58111 0.423889 0
2 2.65819 0.413914 0
2 3.11128 1.6217 0
2 -2.50294 1.3352 0
2 -0.873143 0.232696 0
2 -0.0719611 0.993434 0
2 1.02871 1.36689 0
2 2.05374 1.51487 0
2 -3.292 2.77508 0
2 -1.87788 2.16118 0
2 -1.20747 1.21303 0
2 0.444233 2.24894 0
2 1.44251 2.7207 0
2 2.4207 2.50568 0
